 TITLE = "Characteristic frequency-Amplitude" 
 VARIABLES="Time" "RPM" "A1" "A2" "A3" "A4" "A5" "A6" "A7"
 ZONE T = "Characteristic frequency"
      0.50 0.0000E+00 0.0000E+00 0.0000E+00 0.0000E+00 0.0000E+00 0.0000E+00 0.0000E+00 0.0000E+00
      1.00 0.0000E+00 0.0000E+00 0.0000E+00 0.0000E+00 0.0000E+00 0.0000E+00 0.0000E+00 0.0000E+00
      1.50 0.0000E+00 0.0000E+00 0.0000E+00 0.0000E+00 0.0000E+00 0.0000E+00 0.0000E+00 0.0000E+00
      2.00 0.0000E+00 0.0000E+00 0.0000E+00 0.0000E+00 0.0000E+00 0.0000E+00 0.0000E+00 0.0000E+00
      2.50 0.0000E+00 0.0000E+00 0.0000E+00 0.0000E+00 0.0000E+00 0.0000E+00 0.0000E+00 0.0000E+00
      3.00 0.0000E+00 0.0000E+00 0.0000E+00 0.0000E+00 0.0000E+00 0.0000E+00 0.0000E+00 0.0000E+00
      3.50 0.8433E-01 0.0000E+00 0.0000E+00 0.0000E+00 0.0000E+00 0.0000E+00 0.0000E+00 0.0000E+00
      4.00 0.6398E-01 0.0000E+00 0.0000E+00 0.0000E+00 0.0000E+00 0.0000E+00 0.0000E+00 0.0000E+00
      4.50 0.6398E-01 0.0000E+00 0.0000E+00 0.0000E+00 0.0000E+00 0.0000E+00 0.0000E+00 0.0000E+00
      5.00 0.4362E-01 0.0000E+00 0.0000E+00 0.0000E+00 0.0000E+00 0.0000E+00 0.0000E+00 0.0000E+00
      5.50 0.1047E+00 0.0000E+00 0.0000E+00 0.0000E+00 0.0000E+00 0.0000E+00 0.0000E+00 0.0000E+00
      6.00 0.1454E+00 0.0000E+00 0.0000E+00 0.0000E+00 0.0000E+00 0.0000E+00 0.0000E+00 0.0000E+00
      6.50 0.6398E-01 0.0000E+00 0.0000E+00 0.0000E+00 0.0000E+00 0.0000E+00 0.0000E+00 0.0000E+00
      7.00 0.4362E-01 0.0000E+00 0.0000E+00 0.0000E+00 0.0000E+00 0.0000E+00 0.0000E+00 0.0000E+00
      7.50 0.1658E+00 0.0000E+00 0.0000E+00 0.0000E+00 0.0000E+00 0.0000E+00 0.0000E+00 0.0000E+00
      8.00 0.1454E+00 0.0000E+00 0.0000E+00 0.0000E+00 0.0000E+00 0.0000E+00 0.0000E+00 0.0000E+00
      8.50 0.8433E-01 0.0000E+00 0.0000E+00 0.0000E+00 0.0000E+00 0.0000E+00 0.0000E+00 0.0000E+00
      9.00 0.1250E+00 0.0000E+00 0.0000E+00 0.0000E+00 0.0000E+00 0.0000E+00 0.0000E+00 0.0000E+00
      9.50 0.6398E-01 0.0000E+00 0.0000E+00 0.0000E+00 0.0000E+00 0.0000E+00 0.0000E+00 0.0000E+00
     10.00 0.1454E+00 0.0000E+00 0.0000E+00 0.0000E+00 0.0000E+00 0.0000E+00 0.0000E+00 0.0000E+00
     10.50 0.1047E+00 0.0000E+00 0.0000E+00 0.0000E+00 0.0000E+00 0.0000E+00 0.0000E+00 0.0000E+00
     11.00 0.1047E+00 0.0000E+00 0.0000E+00 0.0000E+00 0.0000E+00 0.0000E+00 0.0000E+00 0.0000E+00
     11.50 0.8433E-01 0.0000E+00 0.0000E+00 0.0000E+00 0.0000E+00 0.0000E+00 0.0000E+00 0.0000E+00
     12.00 0.1454E+00 0.0000E+00 0.0000E+00 0.0000E+00 0.0000E+00 0.0000E+00 0.0000E+00 0.0000E+00
     12.50 0.1250E+00 0.0000E+00 0.0000E+00 0.0000E+00 0.0000E+00 0.0000E+00 0.0000E+00 0.0000E+00
     13.00 0.1047E+00 0.0000E+00 0.0000E+00 0.0000E+00 0.0000E+00 0.0000E+00 0.0000E+00 0.0000E+00
     13.50 0.4362E-01 0.0000E+00 0.0000E+00 0.0000E+00 0.0000E+00 0.0000E+00 0.0000E+00 0.0000E+00
     14.00 0.1047E+00 0.0000E+00 0.0000E+00 0.0000E+00 0.0000E+00 0.0000E+00 0.0000E+00 0.0000E+00
     14.50 0.0000E+00 0.0000E+00 0.0000E+00 0.0000E+00 0.0000E+00 0.0000E+00 0.0000E+00 0.0000E+00
     15.00 0.4362E-01 0.0000E+00 0.0000E+00 0.0000E+00 0.0000E+00 0.0000E+00 0.0000E+00 0.0000E+00
     15.50 0.1250E+00 0.0000E+00 0.0000E+00 0.0000E+00 0.0000E+00 0.0000E+00 0.0000E+00 0.0000E+00
     16.00 0.1861E+00 0.0000E+00 0.0000E+00 0.0000E+00 0.0000E+00 0.0000E+00 0.0000E+00 0.0000E+00
     16.50 0.8433E-01 0.0000E+00 0.0000E+00 0.0000E+00 0.0000E+00 0.0000E+00 0.0000E+00 0.0000E+00
     17.00 0.1047E+00 0.0000E+00 0.0000E+00 0.0000E+00 0.0000E+00 0.0000E+00 0.0000E+00 0.0000E+00
     17.50 0.4362E-01 0.0000E+00 0.0000E+00 0.0000E+00 0.0000E+00 0.0000E+00 0.0000E+00 0.0000E+00
     18.00 0.1250E+00 0.0000E+00 0.0000E+00 0.0000E+00 0.0000E+00 0.0000E+00 0.0000E+00 0.0000E+00
     18.50 0.1658E+00 0.0000E+00 0.0000E+00 0.0000E+00 0.0000E+00 0.0000E+00 0.0000E+00 0.0000E+00
     19.00 0.1250E+00 0.0000E+00 0.0000E+00 0.0000E+00 0.0000E+00 0.0000E+00 0.0000E+00 0.0000E+00
     19.50 0.1454E+00 0.0000E+00 0.0000E+00 0.0000E+00 0.0000E+00 0.0000E+00 0.0000E+00 0.0000E+00
     20.00 0.1250E+00 0.0000E+00 0.0000E+00 0.0000E+00 0.0000E+00 0.0000E+00 0.0000E+00 0.0000E+00
     20.50 0.6398E-01 0.0000E+00 0.0000E+00 0.0000E+00 0.0000E+00 0.0000E+00 0.0000E+00 0.0000E+00
     21.00 0.1250E+00 0.0000E+00 0.0000E+00 0.0000E+00 0.0000E+00 0.0000E+00 0.0000E+00 0.0000E+00
     21.50 0.1250E+00 0.0000E+00 0.0000E+00 0.0000E+00 0.0000E+00 0.0000E+00 0.0000E+00 0.0000E+00
     22.00 0.1250E+00 0.0000E+00 0.0000E+00 0.0000E+00 0.0000E+00 0.0000E+00 0.0000E+00 0.0000E+00
     22.50 0.1250E+00 0.0000E+00 0.0000E+00 0.0000E+00 0.0000E+00 0.0000E+00 0.0000E+00 0.0000E+00
     23.00 0.1454E+00 0.0000E+00 0.0000E+00 0.0000E+00 0.0000E+00 0.0000E+00 0.0000E+00 0.0000E+00
     23.50 0.1250E+00 0.0000E+00 0.0000E+00 0.0000E+00 0.0000E+00 0.0000E+00 0.0000E+00 0.0000E+00
     24.00 0.1454E+00 0.0000E+00 0.0000E+00 0.0000E+00 0.0000E+00 0.0000E+00 0.0000E+00 0.0000E+00
     24.50 0.1810E+02 0.0000E+00 0.0000E+00 0.0000E+00 0.0000E+00 0.0000E+00 0.0000E+00 0.0000E+00
     25.00 0.1568E+02 0.0000E+00 0.0000E+00 0.0000E+00 0.0000E+00 0.0000E+00 0.0000E+00 0.0000E+00
     25.50 0.5504E+02 0.0000E+00 0.0000E+00 0.0000E+00 0.0000E+00 0.0000E+00 0.0000E+00 0.0000E+00
     26.00 0.1049E+03 0.1344E-01 0.1438E-01 0.1048E-01 0.5347E-02 0.2204E-02 0.2157E-02 0.3222E-02
     26.50 0.1462E+03 0.1860E-01 0.2652E-01 0.1223E-01 0.1276E-01 0.1171E-01 0.5478E-02 0.4769E-02
     27.00 0.1745E+03 0.1151E-01 0.8589E-02 0.1044E-01 0.9577E-02 0.7396E-02 0.2787E-02 0.4147E-02
     27.50 0.1938E+03 0.1243E-01 0.1019E-01 0.8377E-02 0.2078E-01 0.4673E-02 0.1967E-02 0.4716E-02
     28.00 0.2073E+03 0.2241E-01 0.2008E-01 0.6898E-02 0.1707E-01 0.1223E-01 0.2130E-02 0.4626E-02
     28.50 0.2171E+03 0.1321E-01 0.7675E-02 0.8358E-02 0.9150E-02 0.1175E-01 0.1464E-02 0.6433E-02
     29.00 0.2221E+03 0.1754E-01 0.9366E-02 0.1262E-01 0.1471E-01 0.2965E-01 0.3391E-02 0.1434E-01
     29.50 0.2281E+03 0.1304E-01 0.1759E-01 0.1199E-01 0.1249E-01 0.8610E-02 0.2354E-02 0.2638E-02
     30.00 0.2339E+03 0.1413E-01 0.9537E-02 0.1005E-01 0.9486E-02 0.1930E-01 0.3065E-02 0.1144E-01
     30.50 0.2372E+03 0.1767E-01 0.1693E-01 0.1125E-01 0.9660E-02 0.1631E-01 0.4039E-02 0.1346E-01
     31.00 0.2410E+03 0.1681E-01 0.1799E-01 0.1049E-01 0.1516E-01 0.2004E-01 0.2819E-02 0.1080E-01
     31.50 0.2423E+03 0.2063E-01 0.9630E-02 0.9038E-02 0.9553E-02 0.2785E-01 0.2691E-02 0.1749E-01
     32.00 0.2448E+03 0.2435E-01 0.1339E-01 0.1221E-01 0.9046E-02 0.2958E-01 0.1966E-02 0.1912E-01
     32.50 0.2448E+03 0.1415E-01 0.1378E-01 0.1423E-01 0.1260E-01 0.3118E-01 0.2753E-02 0.2126E-01
     33.00 0.2472E+03 0.1008E-01 0.1970E-01 0.1070E-01 0.1813E-01 0.4898E-01 0.2766E-02 0.2866E-01
     33.50 0.2485E+03 0.1347E-01 0.7904E-02 0.1182E-01 0.7689E-02 0.4331E-01 0.3329E-02 0.2223E-01
     34.00 0.2485E+03 0.1577E-01 0.1630E-01 0.1144E-01 0.9223E-02 0.4708E-01 0.3024E-02 0.3036E-01
     34.50 0.2483E+03 0.1757E-01 0.1283E-01 0.1140E-01 0.1881E-01 0.6504E-01 0.4241E-02 0.2033E-01
     35.00 0.2516E+03 0.1201E-01 0.1651E-01 0.1067E-01 0.1198E-01 0.1700E-01 0.2579E-02 0.4774E-02
     35.50 0.2515E+03 0.9510E-02 0.1559E-01 0.1387E-01 0.1017E-01 0.6120E-01 0.2574E-02 0.4127E-01
     36.00 0.2531E+03 0.1874E-01 0.1610E-01 0.1418E-01 0.1045E-01 0.3283E-01 0.2789E-02 0.1933E-01
     36.50 0.2539E+03 0.2088E-01 0.1961E-01 0.1137E-01 0.1484E-01 0.3281E-01 0.3083E-02 0.1975E-01
     37.00 0.2570E+03 0.1653E-01 0.2567E-01 0.1426E-01 0.1619E-01 0.3021E-01 0.3470E-02 0.1773E-01
     37.50 0.2600E+03 0.2326E-01 0.1174E-01 0.1050E-01 0.1548E-01 0.2850E-01 0.5201E-02 0.1796E-01
     38.00 0.2654E+03 0.1742E-01 0.1990E-01 0.2137E-01 0.1815E-01 0.9227E-02 0.3389E-02 0.4239E-02
     38.50 0.2656E+03 0.3102E-01 0.1329E-01 0.1804E-01 0.1791E-01 0.3120E-01 0.3645E-02 0.2075E-01
     39.00 0.2694E+03 0.3153E-01 0.1921E-01 0.8222E-02 0.1242E-01 0.2460E-01 0.3399E-02 0.2348E-01
     39.50 0.2710E+03 0.2627E-01 0.3040E-01 0.1415E-01 0.1280E-01 0.3307E-01 0.3419E-02 0.2595E-01
     40.00 0.2714E+03 0.2717E-01 0.1997E-01 0.1672E-01 0.2207E-01 0.3368E-01 0.5120E-02 0.3210E-01
     40.50 0.2764E+03 0.1186E-01 0.5855E-01 0.9891E-02 0.8670E-02 0.6431E-02 0.4345E-02 0.3780E-02
     41.00 0.2768E+03 0.1419E-01 0.1309E+00 0.1460E-01 0.1475E-01 0.3134E-01 0.3713E-02 0.2228E-01
     41.50 0.2805E+03 0.1949E-01 0.1828E+00 0.1848E-01 0.1757E-01 0.3239E-01 0.4351E-02 0.2046E-01
     42.00 0.2865E+03 0.1559E-01 0.3118E+00 0.1341E-01 0.1811E-01 0.1333E-01 0.3131E-02 0.1111E-01
     42.50 0.2898E+03 0.3263E-01 0.2062E+00 0.1444E-01 0.1968E-01 0.2206E-01 0.3495E-02 0.1764E-01
     43.00 0.2944E+03 0.2458E-01 0.1297E+00 0.9457E-02 0.1121E-01 0.9569E-02 0.4287E-02 0.3547E-02
     43.50 0.2950E+03 0.2242E-01 0.2286E-01 0.1069E-01 0.2124E-01 0.3384E-01 0.4961E-02 0.2732E-01
     44.00 0.2991E+03 0.2028E-01 0.5342E-01 0.1170E-01 0.1422E-01 0.2634E-01 0.2746E-02 0.1786E-01
     44.50 0.3035E+03 0.1904E-01 0.3116E-01 0.1418E-01 0.2070E-01 0.2357E-01 0.5869E-02 0.1460E-01
     45.00 0.3077E+03 0.2451E-01 0.3141E-01 0.1607E-01 0.1840E-01 0.2919E-01 0.5104E-02 0.1524E-01
     45.50 0.3076E+03 0.2851E-01 0.2199E-01 0.1586E-01 0.2342E-01 0.6806E-01 0.3768E-02 0.4663E-01
     46.00 0.3135E+03 0.2827E-01 0.2072E-01 0.2158E-01 0.1419E-01 0.2524E-01 0.7495E-02 0.1589E-01
     46.50 0.3169E+03 0.1815E-01 0.2189E-01 0.1234E-01 0.1648E-01 0.3246E-01 0.5223E-02 0.2392E-01
     47.00 0.3205E+03 0.2902E-01 0.1835E-01 0.1286E-01 0.1532E-01 0.2745E-01 0.4728E-02 0.1949E-01
     47.50 0.3222E+03 0.2331E-01 0.2219E-01 0.1340E-01 0.2427E-01 0.6701E-01 0.6875E-02 0.4483E-01
     48.00 0.3239E+03 0.1845E-01 0.2227E-01 0.1570E-01 0.2510E-01 0.5437E-01 0.5377E-02 0.3666E-01
     48.50 0.3263E+03 0.3061E-01 0.2278E-01 0.1334E-01 0.2103E-01 0.2641E-01 0.4084E-02 0.2882E-01
     49.00 0.3266E+03 0.2590E-01 0.2481E-01 0.1336E-01 0.2076E-01 0.1009E+00 0.6246E-02 0.7150E-01
     49.50 0.3267E+03 0.2197E-01 0.1573E-01 0.1042E-01 0.2766E-01 0.9796E-01 0.6924E-02 0.7011E-01
     50.00 0.3254E+03 0.1939E-01 0.2081E-01 0.1690E-01 0.2412E-01 0.5131E-01 0.3453E-02 0.2117E-01
     50.50 0.3260E+03 0.2968E-01 0.1195E-01 0.1578E-01 0.2396E-01 0.3074E-01 0.5363E-02 0.8278E-02
     51.00 0.3240E+03 0.4823E-01 0.2583E-01 0.2080E-01 0.1889E-01 0.6754E-01 0.4983E-02 0.4227E-01
     51.50 0.3248E+03 0.2662E-01 0.1891E-01 0.1698E-01 0.2276E-01 0.8955E-01 0.7184E-02 0.6882E-01
     52.00 0.3258E+03 0.2747E-01 0.1501E-01 0.1626E-01 0.3426E-01 0.1059E+00 0.7811E-02 0.8567E-01
     52.50 0.3263E+03 0.2520E-01 0.2610E-01 0.1471E-01 0.2662E-01 0.7065E-01 0.6808E-02 0.6574E-01
     53.00 0.3256E+03 0.3023E-01 0.2174E-01 0.1484E-01 0.3302E-01 0.7286E-01 0.8356E-02 0.3095E-01
     53.50 0.3269E+03 0.1739E-01 0.1954E-01 0.2253E-01 0.2422E-01 0.7198E-01 0.5445E-02 0.3110E-01
     54.00 0.3281E+03 0.2853E-01 0.2053E-01 0.3117E-01 0.2312E-01 0.7369E-01 0.6506E-02 0.5194E-01
     54.50 0.3301E+03 0.1638E-01 0.1971E-01 0.1616E-01 0.3107E-01 0.6367E-01 0.4931E-02 0.5894E-01
     55.00 0.3303E+03 0.1311E-01 0.1636E-01 0.1405E-01 0.3125E-01 0.9488E-01 0.5268E-02 0.1202E+00
     55.50 0.3319E+03 0.2882E-01 0.2640E-01 0.2004E-01 0.2331E-01 0.5080E-01 0.4317E-02 0.5221E-01
     56.00 0.3333E+03 0.2137E-01 0.2237E-01 0.1517E-01 0.2167E-01 0.9962E-01 0.4423E-02 0.8921E-01
     56.50 0.3348E+03 0.2013E-01 0.2581E-01 0.1476E-01 0.2140E-01 0.6081E-01 0.4832E-02 0.5481E-01
     57.00 0.3361E+03 0.3784E-01 0.2121E-01 0.1223E-01 0.2047E-01 0.8530E-01 0.5328E-02 0.1006E+00
     57.50 0.3387E+03 0.3693E-01 0.1618E-01 0.1677E-01 0.1852E-01 0.5893E-01 0.4823E-02 0.6130E-01
     58.00 0.3418E+03 0.3147E-01 0.2923E-01 0.1116E-01 0.3539E-01 0.5249E-01 0.3122E-02 0.6102E-01
     58.50 0.3422E+03 0.2065E-01 0.1479E-01 0.1556E-01 0.3214E-01 0.1028E+00 0.4170E-02 0.1252E+00
     59.00 0.3432E+03 0.2001E-01 0.2073E-01 0.1790E-01 0.2452E-01 0.1013E+00 0.5108E-02 0.1340E+00
     59.50 0.3442E+03 0.2262E-01 0.2609E-01 0.9840E-02 0.2850E-01 0.7092E-01 0.4362E-02 0.6564E-01
     60.00 0.3470E+03 0.2700E-01 0.2519E-01 0.1516E-01 0.2355E-01 0.3699E-01 0.4710E-02 0.4915E-01
     60.50 0.3478E+03 0.4591E-01 0.2335E-01 0.1314E-01 0.2552E-01 0.8347E-01 0.3237E-02 0.1024E+00
     61.00 0.3498E+03 0.4317E-01 0.1946E-01 0.1662E-01 0.2756E-01 0.4737E-01 0.4295E-02 0.6679E-01
     61.50 0.3550E+03 0.2196E-01 0.1884E-01 0.1723E-01 0.2114E-01 0.3197E-01 0.4164E-02 0.3809E-01
     62.00 0.3577E+03 0.4626E-01 0.2446E-01 0.1631E-01 0.2357E-01 0.5462E-01 0.5603E-02 0.7235E-01
     62.50 0.3586E+03 0.5175E-01 0.2284E-01 0.2157E-01 0.2416E-01 0.8814E-01 0.5623E-02 0.1032E+00
     63.00 0.3596E+03 0.1000E+00 0.2292E-01 0.2237E-01 0.3617E-01 0.9670E-01 0.8369E-02 0.1187E+00
     63.50 0.3613E+03 0.1790E+00 0.1897E-01 0.2222E-01 0.3044E-01 0.5157E-01 0.5437E-02 0.6287E-01
     64.00 0.3624E+03 0.2152E+00 0.1492E-01 0.1718E-01 0.2994E-01 0.6543E-01 0.4253E-02 0.8256E-01
     64.50 0.3630E+03 0.3492E+00 0.1355E-01 0.2614E-01 0.2837E-01 0.6562E-01 0.6045E-02 0.9608E-01
     65.00 0.3639E+03 0.1581E+00 0.1327E-01 0.5376E-01 0.4029E-01 0.6924E-01 0.6347E-02 0.9477E-01
     65.50 0.3656E+03 0.4496E+00 0.2699E-01 0.3100E-01 0.2995E-01 0.7716E-01 0.5419E-02 0.8125E-01
     66.00 0.3666E+03 0.4474E+00 0.2209E-01 0.1323E+00 0.3782E-01 0.8004E-01 0.6692E-02 0.7473E-01
     66.50 0.3675E+03 0.5138E+00 0.2628E-01 0.1456E+00 0.5063E-01 0.6713E-01 0.5887E-02 0.9158E-01
     67.00 0.3681E+03 0.4333E+00 0.1653E-01 0.1026E+00 0.3302E-01 0.8234E-01 0.5310E-02 0.1312E+00
     67.50 0.3691E+03 0.3204E+00 0.1686E-01 0.1649E+00 0.4904E-01 0.8628E-01 0.7822E-02 0.1259E+00
     68.00 0.3695E+03 0.4453E+00 0.1769E-01 0.1212E+00 0.4364E-01 0.9929E-01 0.1119E-01 0.1849E+00
     68.50 0.3701E+03 0.4870E+00 0.2193E-01 0.1351E+00 0.4874E-01 0.6819E-01 0.7678E-02 0.9856E-01
     69.00 0.3707E+03 0.3832E+00 0.1332E-01 0.1044E+00 0.5528E-01 0.8430E-01 0.7042E-02 0.1157E+00
     69.50 0.3705E+03 0.3928E+00 0.2536E-01 0.1673E+00 0.6877E-01 0.6667E-01 0.9302E-02 0.1740E+00
     70.00 0.3713E+03 0.4752E+00 0.1324E-01 0.1002E+00 0.3126E-01 0.7000E-01 0.5965E-02 0.1602E+00
     70.50 0.3724E+03 0.4428E+00 0.2103E-01 0.1176E+00 0.3462E-01 0.1001E+00 0.6553E-02 0.1459E+00
     71.00 0.3728E+03 0.4570E+00 0.1809E-01 0.1220E+00 0.3344E-01 0.8292E-01 0.6706E-02 0.1078E+00
     71.50 0.3734E+03 0.4051E+00 0.2329E-01 0.1273E+00 0.2514E-01 0.8796E-01 0.4161E-02 0.1215E+00
     72.00 0.3737E+03 0.5194E+00 0.2459E-01 0.1332E+00 0.2670E-01 0.8145E-01 0.4361E-02 0.1640E+00
     72.50 0.3738E+03 0.4114E+00 0.2124E-01 0.8953E-01 0.3140E-01 0.9818E-01 0.4405E-02 0.1236E+00
     73.00 0.3752E+03 0.4842E+00 0.2474E-01 0.1065E+00 0.2391E-01 0.6231E-01 0.7395E-02 0.8991E-01
     73.50 0.3755E+03 0.4267E+00 0.2265E-01 0.1052E+00 0.3803E-01 0.7258E-01 0.6288E-02 0.1736E+00
     74.00 0.3761E+03 0.3012E+00 0.3175E-01 0.7007E-01 0.5917E-01 0.7335E-01 0.5323E-02 0.1189E+00
     74.50 0.3757E+03 0.4126E-01 0.1153E-01 0.1220E-01 0.9326E-01 0.8133E-01 0.8666E-02 0.1439E+00
     75.00 0.3763E+03 0.3832E-01 0.2013E-01 0.1901E-01 0.9257E-01 0.1014E+00 0.7148E-02 0.1106E+00
     75.50 0.3772E+03 0.1408E-01 0.2097E-01 0.2066E-01 0.7797E-01 0.8571E-01 0.9913E-02 0.1201E+00
     76.00 0.3783E+03 0.3084E-01 0.2121E-01 0.1569E-01 0.8569E-01 0.6404E-01 0.7755E-02 0.9427E-01
     76.50 0.3783E+03 0.3193E-01 0.1791E-01 0.2378E-01 0.8143E-01 0.9127E-01 0.9241E-02 0.1651E+00
     77.00 0.3788E+03 0.4944E-01 0.2429E-01 0.2308E-01 0.4961E-01 0.7823E-01 0.5249E-02 0.1252E+00
     77.50 0.3798E+03 0.3030E-01 0.2715E-01 0.1523E-01 0.8812E-01 0.8315E-01 0.7350E-02 0.1498E+00
     78.00 0.3795E+03 0.8326E-01 0.2340E-01 0.3156E-01 0.6240E-01 0.9046E-01 0.7462E-02 0.1266E+00
     78.50 0.3798E+03 0.7955E-01 0.2108E-01 0.2180E-01 0.6352E-01 0.7117E-01 0.7022E-02 0.1023E+00
     79.00 0.3809E+03 0.3195E-01 0.2961E-01 0.2331E-01 0.8044E-01 0.8652E-01 0.1062E-01 0.1846E+00
     79.50 0.3812E+03 0.4435E-01 0.1941E-01 0.1730E-01 0.9765E-01 0.1029E+00 0.8905E-02 0.1374E+00
     80.00 0.3810E+03 0.4041E-01 0.2573E-01 0.1957E-01 0.3586E-01 0.8433E-01 0.7318E-02 0.1184E+00
     80.50 0.3822E+03 0.3873E-01 0.2385E-01 0.1123E-01 0.7751E-01 0.1036E+00 0.9110E-02 0.1419E+00
     81.00 0.3816E+03 0.4018E-01 0.2277E-01 0.2306E-01 0.9773E-01 0.1131E+00 0.6380E-02 0.1306E+00
     81.50 0.3824E+03 0.3569E-01 0.4067E-01 0.1190E-01 0.7669E-01 0.9490E-01 0.8672E-02 0.9958E-01
     82.00 0.3824E+03 0.3726E-01 0.2216E-01 0.1967E-01 0.9631E-01 0.1193E+00 0.8315E-02 0.1327E+00
     82.50 0.3832E+03 0.2237E-01 0.3160E-01 0.2525E-01 0.7822E-01 0.1166E+00 0.6611E-02 0.1176E+00
     83.00 0.3824E+03 0.5307E-01 0.2094E-01 0.1172E-01 0.4971E-01 0.1176E+00 0.8136E-02 0.1234E+00
     83.50 0.3829E+03 0.6709E-01 0.2207E-01 0.2441E-01 0.6931E-01 0.7604E-01 0.5389E-02 0.9209E-01
     84.00 0.3834E+03 0.4445E-01 0.2188E-01 0.1408E-01 0.9311E-01 0.9794E-01 0.6265E-02 0.1141E+00
     84.50 0.3836E+03 0.3964E-01 0.2229E-01 0.1395E-01 0.1012E+00 0.1115E+00 0.8068E-02 0.1636E+00
     85.00 0.3840E+03 0.5827E-01 0.2210E-01 0.1404E-01 0.8687E-01 0.7812E-01 0.6834E-02 0.1188E+00
     85.50 0.3838E+03 0.4582E-01 0.2438E-01 0.1276E-01 0.8872E-01 0.1024E+00 0.9203E-02 0.1826E+00
     86.00 0.3838E+03 0.3816E-01 0.1755E-01 0.2926E-01 0.9874E-01 0.1231E+00 0.9240E-02 0.1795E+00
     86.50 0.3845E+03 0.3451E-01 0.2277E-01 0.1376E-01 0.7338E-01 0.1178E+00 0.1045E-01 0.7975E-01
     87.00 0.3846E+03 0.6495E-01 0.1990E-01 0.2202E-01 0.7671E-01 0.7144E-01 0.6795E-02 0.9896E-01
     87.50 0.3848E+03 0.2578E-01 0.1997E-01 0.1781E-01 0.8178E-01 0.1160E+00 0.9253E-02 0.1196E+00
     88.00 0.3851E+03 0.2166E-01 0.2358E-01 0.1461E-01 0.8914E-01 0.9353E-01 0.7697E-02 0.2054E+00
     88.50 0.3847E+03 0.1532E-01 0.2629E-01 0.1347E-01 0.9030E-01 0.1096E+00 0.7039E-02 0.1265E+00
     89.00 0.3844E+03 0.8230E-01 0.2256E-01 0.1657E-01 0.5349E-01 0.8804E-01 0.6183E-02 0.1709E+00
     89.50 0.3854E+03 0.6524E-01 0.4596E-01 0.1682E-01 0.5535E-01 0.1128E+00 0.6047E-02 0.1096E+00
     90.00 0.3853E+03 0.1425E+00 0.5487E-01 0.1864E-01 0.5139E-01 0.8743E-01 0.7391E-02 0.1512E+00
     90.50 0.3855E+03 0.8844E-01 0.7139E-01 0.1910E-01 0.4092E-01 0.1316E+00 0.6694E-02 0.1641E+00
     91.00 0.3853E+03 0.1085E+00 0.5346E-01 0.1894E-01 0.6757E-01 0.1254E+00 0.5970E-02 0.1573E+00
     91.50 0.3863E+03 0.1203E+00 0.4886E-01 0.1767E-01 0.4929E-01 0.6081E-01 0.6390E-02 0.8764E-01
     92.00 0.3866E+03 0.9154E-01 0.6038E-01 0.1733E-01 0.4912E-01 0.8020E-01 0.3620E-02 0.1268E+00
     92.50 0.3870E+03 0.1010E+00 0.5600E-01 0.2227E-01 0.5271E-01 0.8783E-01 0.4587E-02 0.1086E+00
     93.00 0.3876E+03 0.9975E-01 0.4524E-01 0.1354E-01 0.4484E-01 0.7400E-01 0.5753E-02 0.7194E-01
     93.50 0.3885E+03 0.9814E-01 0.3473E-01 0.1499E-01 0.6449E-01 0.8118E-01 0.6288E-02 0.8786E-01
     94.00 0.3887E+03 0.7981E-01 0.6520E-01 0.1561E-01 0.3445E-01 0.1250E+00 0.6007E-02 0.1387E+00
     94.50 0.3894E+03 0.5989E-01 0.5111E-01 0.2598E-01 0.5517E-01 0.8774E-01 0.3501E-02 0.9204E-01
     95.00 0.3901E+03 0.9407E-01 0.6342E-01 0.1742E-01 0.5631E-01 0.9623E-01 0.5144E-02 0.1285E+00
     95.50 0.3885E+03 0.7144E-01 0.5505E-01 0.1464E-01 0.5891E-01 0.3510E-01 0.4371E-02 0.8108E-02
     96.00 0.3901E+03 0.8680E-01 0.5443E-01 0.1444E-01 0.4125E-01 0.1208E+00 0.5519E-02 0.1227E+00
     96.50 0.3890E+03 0.5615E-01 0.4226E-01 0.1106E-01 0.4647E-01 0.3229E-01 0.5273E-02 0.6619E-02
     97.00 0.3899E+03 0.9977E-01 0.5929E-01 0.1794E-01 0.5014E-01 0.1189E+00 0.5417E-02 0.4890E-01
     97.50 0.3917E+03 0.9439E-01 0.3972E-01 0.2491E-01 0.5669E-01 0.9660E-01 0.9034E-02 0.1105E+00
     98.00 0.3916E+03 0.4945E-01 0.4925E-01 0.2428E-01 0.6577E-01 0.1006E+00 0.4696E-02 0.1187E+00
     98.50 0.3913E+03 0.9383E-01 0.3883E-01 0.2336E-01 0.5467E-01 0.9033E-01 0.6877E-02 0.1301E+00
     99.00 0.3912E+03 0.9436E-01 0.3327E-01 0.2138E-01 0.4442E-01 0.1073E+00 0.4209E-02 0.7070E-01
     99.50 0.3908E+03 0.5183E-01 0.5187E-01 0.2983E-01 0.4745E-01 0.1171E+00 0.4212E-02 0.6492E-01
    100.00 0.3914E+03 0.7026E-01 0.3675E-01 0.2136E-01 0.6682E-01 0.1114E+00 0.8193E-02 0.1025E+00
    100.50 0.3920E+03 0.7631E-01 0.4125E-01 0.1471E-01 0.4961E-01 0.1179E+00 0.7489E-02 0.1067E+00
    101.00 0.3927E+03 0.4095E-01 0.3461E-01 0.1823E-01 0.5594E-01 0.8478E-01 0.5887E-02 0.1249E+00
    101.50 0.3929E+03 0.4641E-01 0.3529E-01 0.1735E-01 0.4158E-01 0.7343E-01 0.6337E-02 0.7674E-01
    102.00 0.3940E+03 0.9547E-01 0.3650E-01 0.1710E-01 0.7290E-01 0.2391E-01 0.4788E-02 0.1218E-01
    102.50 0.3948E+03 0.7343E-01 0.2855E-01 0.2231E-01 0.6874E-01 0.1222E-01 0.3955E-02 0.9070E-02
    103.00 0.3944E+03 0.7912E-01 0.3505E-01 0.1375E-01 0.5095E-01 0.1326E+00 0.6235E-02 0.2262E-01
    103.50 0.3940E+03 0.8660E-01 0.2862E-01 0.1352E-01 0.6904E-01 0.1143E+00 0.7870E-02 0.8859E-01
    104.00 0.3934E+03 0.6463E-01 0.3788E-01 0.1930E-01 0.6130E-01 0.1052E+00 0.5931E-02 0.1146E+00
    104.50 0.3930E+03 0.6804E-01 0.4126E-01 0.1397E-01 0.6719E-01 0.7060E-01 0.4214E-02 0.9360E-02
    105.00 0.3947E+03 0.9565E-01 0.2520E-01 0.1847E-01 0.5444E-01 0.1183E+00 0.8047E-02 0.1239E+00
    105.50 0.3962E+03 0.7244E-01 0.3568E-01 0.1969E-01 0.5495E-01 0.2544E-01 0.3795E-02 0.9328E-02
    106.00 0.3955E+03 0.9773E-01 0.4194E-01 0.1765E-01 0.6237E-01 0.9496E-01 0.6889E-02 0.8230E-01
    106.50 0.3941E+03 0.9458E-01 0.3350E-01 0.1346E-01 0.6811E-01 0.1260E+00 0.4670E-02 0.1065E-01
    107.00 0.3941E+03 0.8416E-01 0.3186E-01 0.2290E-01 0.7100E-01 0.1009E+00 0.4557E-02 0.8487E-02
    107.50 0.3969E+03 0.9509E-01 0.3849E-01 0.1810E-01 0.6064E-01 0.3188E-01 0.3550E-02 0.5682E-02
    108.00 0.3959E+03 0.6732E-01 0.3211E-01 0.2482E-01 0.6710E-01 0.1003E+00 0.4379E-02 0.1166E+00
    108.50 0.3937E+03 0.8791E-01 0.3297E-01 0.2392E-01 0.6377E-01 0.1759E-01 0.4004E-02 0.7758E-02
    109.00 0.3961E+03 0.6324E-01 0.3365E-01 0.1306E-01 0.6351E-01 0.1288E+00 0.6912E-02 0.1179E+00
    109.50 0.3968E+03 0.7434E-01 0.3435E-01 0.1918E-01 0.6874E-01 0.9829E-01 0.5294E-02 0.1256E+00
    110.00 0.3957E+03 0.6183E-01 0.4086E-01 0.1672E-01 0.5536E-01 0.1271E+00 0.4765E-02 0.1301E+00
    110.50 0.3958E+03 0.4306E-01 0.2844E-01 0.1929E-01 0.7490E-01 0.9764E-01 0.6513E-02 0.3576E-01
    111.00 0.3976E+03 0.6785E-01 0.2791E-01 0.1747E-01 0.7482E-01 0.9747E-01 0.6978E-02 0.8674E-01
    111.50 0.3963E+03 0.9134E-01 0.3014E-01 0.2467E-01 0.6219E-01 0.8661E-01 0.4115E-02 0.1028E+00
    112.00 0.3974E+03 0.1117E+00 0.3265E-01 0.1530E-01 0.6576E-01 0.8525E-01 0.5791E-02 0.1430E+00
    112.50 0.3975E+03 0.6741E-01 0.2546E-01 0.1828E-01 0.7849E-01 0.1357E+00 0.3808E-02 0.1189E+00
    113.00 0.3959E+03 0.9833E-01 0.4951E-01 0.2147E-01 0.8644E-01 0.2943E-01 0.3650E-02 0.1527E-01
    113.50 0.3990E+03 0.9501E-01 0.4041E-01 0.1121E-01 0.5534E-01 0.1580E-01 0.5475E-02 0.6272E-02
    114.00 0.3973E+03 0.4226E-01 0.3492E-01 0.1396E-01 0.6936E-01 0.1131E+00 0.4840E-02 0.1073E+00
    114.50 0.3984E+03 0.5807E-01 0.3158E-01 0.2098E-01 0.7210E-01 0.1244E+00 0.5531E-02 0.1247E+00
    115.00 0.3984E+03 0.5953E-01 0.1828E-01 0.2273E-01 0.8325E-01 0.1040E+00 0.4648E-02 0.1222E+00
    115.50 0.3981E+03 0.7062E-01 0.3577E-01 0.1483E-01 0.7435E-01 0.9726E-01 0.9056E-02 0.1253E+00
    116.00 0.3995E+03 0.7021E-01 0.2196E-01 0.1130E-01 0.9285E-01 0.1384E+00 0.4223E-02 0.1248E+00
    116.50 0.3999E+03 0.5966E-01 0.1714E-01 0.1153E-01 0.6665E-01 0.1325E+00 0.6088E-02 0.1037E+00
    117.00 0.3997E+03 0.7955E-01 0.4901E-01 0.2249E-01 0.5525E-01 0.1311E+00 0.4918E-02 0.1367E+00
    117.50 0.4008E+03 0.5221E-01 0.3949E-01 0.1843E-01 0.7349E-01 0.7980E-01 0.6648E-02 0.1754E-01
    118.00 0.3988E+03 0.6521E-01 0.2838E-01 0.1568E-01 0.8600E-01 0.1474E+00 0.5617E-02 0.1586E-01
    118.50 0.4010E+03 0.9200E-01 0.3946E-01 0.2465E-01 0.8208E-01 0.2726E-01 0.4147E-02 0.9949E-02
    119.00 0.3985E+03 0.6747E-01 0.4421E-01 0.1568E-01 0.7853E-01 0.2599E-01 0.4176E-02 0.7906E-02
    119.50 0.4006E+03 0.7219E-01 0.2822E-01 0.1158E-01 0.7078E-01 0.1180E+00 0.6340E-02 0.1132E+00
    120.00 0.4008E+03 0.8918E-01 0.2948E-01 0.9366E-02 0.6775E-01 0.9504E-01 0.6171E-02 0.1268E+00
    120.50 0.3995E+03 0.4642E-01 0.4821E-01 0.1742E-01 0.6455E-01 0.1073E+00 0.4772E-02 0.3439E-01
    121.00 0.4019E+03 0.4719E-01 0.3440E-01 0.1110E-01 0.9241E-01 0.2805E-01 0.5773E-02 0.5128E-02
    121.50 0.3993E+03 0.7030E-01 0.4380E-01 0.1008E-01 0.5578E-01 0.1933E-01 0.4117E-02 0.1005E-01
    122.00 0.4010E+03 0.6085E-01 0.2270E-01 0.1528E-01 0.6608E-01 0.1362E+00 0.5318E-02 0.1386E+00
    122.50 0.4029E+03 0.4461E-01 0.2721E-01 0.2174E-01 0.9044E-01 0.2097E-01 0.4016E-02 0.6399E-02
    123.00 0.3995E+03 0.5728E-01 0.5339E-01 0.1478E-01 0.7643E-01 0.8357E-02 0.4427E-02 0.5805E-02
    123.50 0.4017E+03 0.5014E-01 0.2653E-01 0.1673E-01 0.7351E-01 0.1306E+00 0.6000E-02 0.1058E+00
    124.00 0.4031E+03 0.6338E-01 0.2565E-01 0.1077E-01 0.6867E-01 0.2976E-01 0.4775E-02 0.7216E-02
    124.50 0.4015E+03 0.8969E-01 0.2677E-01 0.1809E-01 0.7888E-01 0.1434E+00 0.8176E-02 0.1357E+00
    125.00 0.4013E+03 0.9837E-01 0.2596E-01 0.1503E-01 0.9541E-01 0.9468E-01 0.7678E-02 0.4417E-01
    125.50 0.4028E+03 0.3529E-01 0.3126E-01 0.2905E-01 0.6877E-01 0.1227E+00 0.5866E-02 0.7910E-01
    126.00 0.4047E+03 0.3725E-01 0.3887E-01 0.1584E-01 0.2207E-01 0.1446E-01 0.3431E-02 0.4949E-02
    126.50 0.4042E+03 0.4456E-01 0.5697E-01 0.1513E-01 0.8950E-01 0.1177E+00 0.6459E-02 0.5893E-01
    127.00 0.4022E+03 0.4975E-01 0.7254E-01 0.2046E-01 0.7243E-01 0.3691E-01 0.4809E-02 0.1031E-01
    127.50 0.4031E+03 0.2593E-01 0.7207E-01 0.1046E-01 0.6655E-01 0.1237E+00 0.3987E-02 0.3591E-01
    128.00 0.4039E+03 0.3091E-01 0.6741E-01 0.1422E-01 0.1003E+00 0.1255E+00 0.6791E-02 0.8676E-01
    128.50 0.4051E+03 0.3543E-01 0.3134E-01 0.2510E-01 0.6586E-01 0.1472E+00 0.7605E-02 0.1183E+00
    129.00 0.4056E+03 0.5561E-01 0.2001E-01 0.2172E-01 0.6190E-01 0.1430E+00 0.1042E-01 0.9331E-01
    129.50 0.4060E+03 0.5171E-01 0.1987E-01 0.2036E-01 0.5370E-01 0.1647E+00 0.1042E-01 0.1584E+00
    130.00 0.4064E+03 0.4190E-01 0.2595E-01 0.1335E-01 0.7378E-01 0.1567E+00 0.1294E-01 0.1328E+00
    130.50 0.4064E+03 0.2374E-01 0.2573E-01 0.1532E-01 0.3780E-01 0.1524E+00 0.1119E-01 0.1637E+00
    131.00 0.4067E+03 0.3695E-01 0.2464E-01 0.2120E-01 0.5777E-01 0.1334E+00 0.8815E-02 0.1397E+00
    131.50 0.4065E+03 0.4378E-01 0.2171E-01 0.1188E-01 0.5060E-01 0.1527E+00 0.9541E-02 0.1207E+00
    132.00 0.4064E+03 0.2714E-01 0.2735E-01 0.1600E-01 0.4273E-01 0.1483E+00 0.6518E-02 0.2264E-01
    132.50 0.4063E+03 0.3530E-01 0.2975E-01 0.1390E-01 0.6222E-01 0.1646E-01 0.3620E-02 0.9351E-02
    133.00 0.4094E+03 0.4340E-01 0.2092E-01 0.2507E-01 0.4918E-01 0.3682E-01 0.3171E-02 0.1856E-01
    133.50 0.4099E+03 0.4054E-01 0.2046E-01 0.1801E-01 0.4268E-01 0.7632E-02 0.3482E-02 0.8375E-02
    134.00 0.4090E+03 0.4777E-01 0.2089E-01 0.1304E-01 0.6580E-01 0.1196E+00 0.1010E-01 0.1299E+00
    134.50 0.4084E+03 0.4126E-01 0.2808E-01 0.1290E-01 0.7025E-01 0.1516E+00 0.1262E-01 0.1334E+00
    135.00 0.4073E+03 0.6122E-01 0.2565E-01 0.1338E-01 0.6812E-01 0.2278E-01 0.3026E-02 0.8019E-02
    135.50 0.4093E+03 0.4190E-01 0.2090E-01 0.1227E-01 0.4942E-01 0.1257E+00 0.1545E-01 0.1344E+00
    136.00 0.4109E+03 0.4860E-01 0.2281E-01 0.1648E-01 0.4215E-01 0.7182E-02 0.3639E-02 0.3975E-02
    136.50 0.4094E+03 0.3681E-01 0.3293E-01 0.1448E-01 0.5898E-01 0.1391E+00 0.7379E-02 0.1152E+00
    137.00 0.4084E+03 0.4848E-01 0.1549E-01 0.1290E-01 0.6725E-01 0.1472E+00 0.1063E-01 0.5895E-01
    137.50 0.4091E+03 0.6128E-01 0.1957E-01 0.1612E-01 0.5454E-01 0.1413E+00 0.1085E-01 0.1047E+00
    138.00 0.4113E+03 0.6184E-01 0.1439E-01 0.1850E-01 0.5240E-01 0.2293E-01 0.2317E-02 0.6875E-02
    138.50 0.4100E+03 0.6048E-01 0.2005E-01 0.1359E-01 0.6118E-01 0.1032E+00 0.1011E-01 0.1605E+00
    139.00 0.4084E+03 0.5008E-01 0.2990E-01 0.1231E-01 0.5540E-01 0.1219E+00 0.3447E-02 0.9698E-02
    139.50 0.4112E+03 0.3871E-01 0.2254E-01 0.2522E-01 0.5981E-01 0.4564E-01 0.4392E-02 0.9059E-02
    140.00 0.4108E+03 0.4825E-01 0.1936E-01 0.1777E-01 0.4045E-01 0.1411E+00 0.1346E-01 0.1095E+00
    140.50 0.4102E+03 0.4121E-01 0.2132E-01 0.1456E-01 0.4653E-01 0.1335E+00 0.1284E-01 0.9824E-01
    141.00 0.4102E+03 0.5772E-01 0.2236E-01 0.2278E-01 0.5038E-01 0.1079E+00 0.1121E-01 0.1309E+00
    141.50 0.4120E+03 0.5824E-01 0.2164E-01 0.2407E-01 0.6840E-01 0.4373E-01 0.3874E-02 0.1213E-01
    142.00 0.4100E+03 0.4420E-01 0.2817E-01 0.1518E-01 0.6209E-01 0.1441E+00 0.1377E-01 0.1090E+00
    142.50 0.4112E+03 0.3787E-01 0.1849E-01 0.2150E-01 0.5267E-01 0.1506E+00 0.1235E-01 0.1233E+00
    143.00 0.4117E+03 0.3278E-01 0.1446E-01 0.1639E-01 0.6305E-01 0.1047E+00 0.9792E-02 0.1432E+00
    143.50 0.4100E+03 0.5181E-01 0.1946E-01 0.1097E-01 0.4856E-01 0.1260E+00 0.3768E-02 0.3654E-02
    144.00 0.4128E+03 0.3377E-01 0.1845E-01 0.1481E-01 0.6730E-01 0.1654E-01 0.3319E-02 0.9061E-02
    144.50 0.4116E+03 0.4369E-01 0.1838E-01 0.1741E-01 0.5854E-01 0.1290E+00 0.7845E-02 0.1343E+00
    145.00 0.4099E+03 0.6567E-01 0.1905E-01 0.1678E-01 0.5598E-01 0.2880E-01 0.5067E-02 0.7764E-02
    145.50 0.4127E+03 0.5370E-01 0.1696E-01 0.1896E-01 0.5094E-01 0.3466E-01 0.4922E-02 0.1461E-01
    146.00 0.4107E+03 0.6079E-01 0.1693E-01 0.1501E-01 0.6041E-01 0.1213E+00 0.1463E-01 0.9632E-02
    146.50 0.4137E+03 0.4435E-01 0.1782E-01 0.8718E-02 0.5828E-01 0.2935E-01 0.3477E-02 0.5328E-02
    147.00 0.4115E+03 0.6016E-01 0.1860E-01 0.2332E-01 0.4327E-01 0.1677E+00 0.1146E-01 0.1393E+00
    147.50 0.4134E+03 0.6270E-01 0.2005E-01 0.1816E-01 0.3810E-01 0.3434E-01 0.6270E-02 0.7514E-02
    148.00 0.4126E+03 0.6060E-01 0.1690E-01 0.2070E-01 0.5755E-01 0.1216E+00 0.9634E-02 0.1355E+00
    148.50 0.4139E+03 0.2688E-01 0.1873E-01 0.1731E-01 0.4116E-01 0.1353E+00 0.1136E-01 0.6076E-01
    149.00 0.4134E+03 0.2896E-01 0.2390E-01 0.1736E-01 0.5248E-01 0.1270E+00 0.1071E-01 0.1291E+00
    149.50 0.4152E+03 0.4328E-01 0.1873E-01 0.2909E-01 0.6091E-01 0.1464E-01 0.2936E-02 0.6492E-02
    150.00 0.4126E+03 0.5656E-01 0.2175E-01 0.1562E-01 0.4430E-01 0.1093E+00 0.4354E-02 0.3980E-02
    150.50 0.4153E+03 0.5257E-01 0.2535E-01 0.1403E-01 0.3944E-01 0.2709E-01 0.4154E-02 0.7231E-02